<?xml version="1.0" encoding="UTF-8"?>

<!-- generated on 03/07/19 12:00:30 by Eclipse SUMO Version 1.1.0
<configuration xmlns:xsi="http://www.w3.org/2001/XMLSchema-instance" xsi:noNamespaceSchemaLocation="http://sumo.dlr.de/xsd/sumoConfiguration.xsd">

    <input>
        <net-file value="C:/Users/jaron/PycharmProjects/SumoTraci/WorkingDir/my_net.net.xml"/>
        <route-files value="C:/Users/jaron/PycharmProjects/SumoTraci/WorkingDir/my_route.rou.xml"/>
    </input>

    <output>
        <netstate-dump value="C:/Users/jaron/PycharmProjects/SumoTraci/WorkingDir/output.xml"/>
        <vehroute-output value="vehroutes.xml"/>
    </output>

    <time>
        <begin value="0"/>
        <end value="2000"/>
    </time>

    <processing>
        <ignore-route-errors value="true"/>
    </processing>

    <traci_server>
        <remote-port value="62160"/>
    </traci_server>

</configuration>
