<?xml version="1.0" encoding="UTF-8"?>

<!-- generated on 11/11/18 16:04:35 by Eclipse SUMO Version 1.0.1
<configuration xmlns:xsi="http://www.w3.org/2001/XMLSchema-instance" xsi:noNamespaceSchemaLocation="http://sumo.dlr.de/xsd/sumoConfiguration.xsd">

    <input>
        <net-file value="my_net.net.xml"/>
        <route-files value="my_route.rou.xml"/>
    </input>

    <output>
        <netstate-dump value="output.xml"/>
        <fcd-output value="output2"/>
    </output>

    <time>
        <begin value="0"/>
        <end value="2000"/>
    </time>

</configuration>
-->

<fcd-export xmlns:xsi="http://www.w3.org/2001/XMLSchema-instance" xsi:noNamespaceSchemaLocation="http://sumo.dlr.de/xsd/fcd_file.xsd">
    <timestep time="0.00"/>
    <timestep time="1.00"/>
    <timestep time="2.00"/>
    <timestep time="3.00"/>
    <timestep time="4.00"/>
    <timestep time="5.00"/>
    <timestep time="6.00"/>
    <timestep time="7.00"/>
    <timestep time="8.00"/>
    <timestep time="9.00"/>
    <timestep time="10.00">
        <vehicle id="veh0" x="12.10" y="-8.00" angle="90.00" type="Bus" speed="0.00" pos="12.10" lane="1to2_0" slope="0.00"/>
        <vehicle id="veh1" x="256.34" y="1.94" angle="26.56" type="Car" speed="0.00" pos="2.10" lane="2to3_0" slope="0.00"/>
    </timestep>
    <timestep time="11.00">
        <vehicle id="veh0" x="13.10" y="-8.00" angle="90.00" type="Bus" speed="1.00" pos="13.10" lane="1to2_0" slope="0.00"/>
        <vehicle id="veh1" x="256.79" y="2.83" angle="26.56" type="Car" speed="1.00" pos="3.10" lane="2to3_0" slope="0.00"/>
    </timestep>
    <timestep time="12.00">
        <vehicle id="veh0" x="14.10" y="-8.00" angle="90.00" type="Bus" speed="1.00" pos="14.10" lane="1to2_0" slope="0.00"/>
        <vehicle id="veh1" x="257.68" y="4.62" angle="26.56" type="Car" speed="2.00" pos="5.10" lane="2to3_0" slope="0.00"/>
    </timestep>
    <timestep time="13.00">
        <vehicle id="veh0" x="15.10" y="-8.00" angle="90.00" type="Bus" speed="1.00" pos="15.10" lane="1to2_0" slope="0.00"/>
        <vehicle id="veh1" x="259.02" y="7.30" angle="26.56" type="Car" speed="3.00" pos="8.10" lane="2to3_0" slope="0.00"/>
    </timestep>
    <timestep time="14.00">
        <vehicle id="veh0" x="16.10" y="-8.00" angle="90.00" type="Bus" speed="1.00" pos="16.10" lane="1to2_0" slope="0.00"/>
        <vehicle id="veh1" x="260.81" y="10.88" angle="26.56" type="Car" speed="4.00" pos="12.10" lane="2to3_0" slope="0.00"/>
    </timestep>
    <timestep time="15.00">
        <vehicle id="veh0" x="17.10" y="-8.00" angle="90.00" type="Bus" speed="1.00" pos="17.10" lane="1to2_0" slope="0.00"/>
        <vehicle id="veh1" x="263.05" y="15.35" angle="26.56" type="Car" speed="5.00" pos="17.10" lane="2to3_0" slope="0.00"/>
    </timestep>
    <timestep time="16.00">
        <vehicle id="veh0" x="18.10" y="-8.00" angle="90.00" type="Bus" speed="1.00" pos="18.10" lane="1to2_0" slope="0.00"/>
        <vehicle id="veh1" x="265.73" y="20.72" angle="26.56" type="Car" speed="6.00" pos="23.10" lane="2to3_0" slope="0.00"/>
    </timestep>
    <timestep time="17.00">
        <vehicle id="veh0" x="19.10" y="-8.00" angle="90.00" type="Bus" speed="1.00" pos="19.10" lane="1to2_0" slope="0.00"/>
        <vehicle id="veh1" x="268.86" y="26.98" angle="26.56" type="Car" speed="7.00" pos="30.10" lane="2to3_0" slope="0.00"/>
    </timestep>
    <timestep time="18.00">
        <vehicle id="veh0" x="20.10" y="-8.00" angle="90.00" type="Bus" speed="1.00" pos="20.10" lane="1to2_0" slope="0.00"/>
        <vehicle id="veh1" x="272.44" y="34.14" angle="26.56" type="Car" speed="8.00" pos="38.10" lane="2to3_0" slope="0.00"/>
    </timestep>
    <timestep time="19.00">
        <vehicle id="veh0" x="21.10" y="-8.00" angle="90.00" type="Bus" speed="1.00" pos="21.10" lane="1to2_0" slope="0.00"/>
        <vehicle id="veh1" x="276.46" y="42.19" angle="26.56" type="Car" speed="9.00" pos="47.10" lane="2to3_0" slope="0.00"/>
    </timestep>
    <timestep time="20.00">
        <vehicle id="veh0" x="22.10" y="-8.00" angle="90.00" type="Bus" speed="1.00" pos="22.10" lane="1to2_0" slope="0.00"/>
        <vehicle id="veh1" x="280.93" y="51.13" angle="26.56" type="Car" speed="10.00" pos="57.10" lane="2to3_0" slope="0.00"/>
    </timestep>
    <timestep time="21.00">
        <vehicle id="veh0" x="23.10" y="-8.00" angle="90.00" type="Bus" speed="1.00" pos="23.10" lane="1to2_0" slope="0.00"/>
        <vehicle id="veh1" x="285.85" y="60.97" angle="26.56" type="Car" speed="11.00" pos="68.10" lane="2to3_0" slope="0.00"/>
    </timestep>
    <timestep time="22.00">
        <vehicle id="veh0" x="24.10" y="-8.00" angle="90.00" type="Bus" speed="1.00" pos="24.10" lane="1to2_0" slope="0.00"/>
        <vehicle id="veh1" x="291.22" y="71.70" angle="26.56" type="Car" speed="12.00" pos="80.10" lane="2to3_0" slope="0.00"/>
    </timestep>
    <timestep time="23.00">
        <vehicle id="veh0" x="25.10" y="-8.00" angle="90.00" type="Bus" speed="1.00" pos="25.10" lane="1to2_0" slope="0.00"/>
        <vehicle id="veh1" x="297.03" y="83.33" angle="26.56" type="Car" speed="13.00" pos="93.10" lane="2to3_0" slope="0.00"/>
    </timestep>
    <timestep time="24.00">
        <vehicle id="veh0" x="26.10" y="-8.00" angle="90.00" type="Bus" speed="1.00" pos="26.10" lane="1to2_0" slope="0.00"/>
        <vehicle id="veh1" x="303.29" y="95.85" angle="26.56" type="Car" speed="14.00" pos="107.10" lane="2to3_0" slope="0.00"/>
    </timestep>
    <timestep time="25.00">
        <vehicle id="veh0" x="27.10" y="-8.00" angle="90.00" type="Bus" speed="1.00" pos="27.10" lane="1to2_0" slope="0.00"/>
        <vehicle id="veh1" x="309.59" y="108.44" angle="26.56" type="Car" speed="14.07" pos="121.17" lane="2to3_0" slope="0.00"/>
    </timestep>
    <timestep time="26.00">
        <vehicle id="veh0" x="28.10" y="-8.00" angle="90.00" type="Bus" speed="1.00" pos="28.10" lane="1to2_0" slope="0.00"/>
        <vehicle id="veh1" x="315.88" y="121.03" angle="26.56" type="Car" speed="14.07" pos="135.25" lane="2to3_0" slope="0.00"/>
    </timestep>
    <timestep time="27.00">
        <vehicle id="veh0" x="29.10" y="-8.00" angle="90.00" type="Bus" speed="1.00" pos="29.10" lane="1to2_0" slope="0.00"/>
        <vehicle id="veh1" x="322.18" y="133.62" angle="26.56" type="Car" speed="14.07" pos="149.32" lane="2to3_0" slope="0.00"/>
    </timestep>
    <timestep time="28.00">
        <vehicle id="veh0" x="30.10" y="-8.00" angle="90.00" type="Bus" speed="1.00" pos="30.10" lane="1to2_0" slope="0.00"/>
        <vehicle id="veh1" x="328.47" y="146.21" angle="26.56" type="Car" speed="14.07" pos="163.40" lane="2to3_0" slope="0.00"/>
    </timestep>
    <timestep time="29.00">
        <vehicle id="veh0" x="31.10" y="-8.00" angle="90.00" type="Bus" speed="1.00" pos="31.10" lane="1to2_0" slope="0.00"/>
        <vehicle id="veh1" x="334.76" y="158.80" angle="26.56" type="Car" speed="14.07" pos="177.47" lane="2to3_0" slope="0.00"/>
    </timestep>
    <timestep time="30.00">
        <vehicle id="veh0" x="32.10" y="-8.00" angle="90.00" type="Bus" speed="1.00" pos="32.10" lane="1to2_0" slope="0.00"/>
        <vehicle id="veh1" x="341.06" y="171.39" angle="26.56" type="Car" speed="14.07" pos="191.55" lane="2to3_0" slope="0.00"/>
    </timestep>
    <timestep time="31.00">
        <vehicle id="veh0" x="33.10" y="-8.00" angle="90.00" type="Bus" speed="1.00" pos="33.10" lane="1to2_0" slope="0.00"/>
        <vehicle id="veh1" x="345.70" y="180.68" angle="26.56" type="Car" speed="10.39" pos="201.93" lane="2to3_0" slope="0.00"/>
    </timestep>
    <timestep time="32.00">
        <vehicle id="veh0" x="34.10" y="-8.00" angle="90.00" type="Bus" speed="1.00" pos="34.10" lane="1to2_0" slope="0.00"/>
        <vehicle id="veh1" x="349.05" y="184.70" angle="54.16" type="Car" speed="5.39" pos="4.12" lane=":n3_0_0" slope="0.00"/>
    </timestep>
    <timestep time="33.00">
        <vehicle id="veh0" x="35.10" y="-8.00" angle="90.00" type="Bus" speed="1.00" pos="35.10" lane="1to2_0" slope="0.00"/>
        <vehicle id="veh1" x="353.37" y="182.18" angle="136.57" type="Car" speed="5.39" pos="0.33" lane="3to4_0" slope="0.00"/>
    </timestep>
    <timestep time="34.00">
        <vehicle id="veh0" x="36.10" y="-8.00" angle="90.00" type="Bus" speed="1.00" pos="36.10" lane="1to2_0" slope="0.00"/>
        <vehicle id="veh1" x="357.20" y="177.07" angle="143.13" type="Car" speed="6.39" pos="6.71" lane="3to4_0" slope="0.00"/>
        <vehicle id="veh2" x="354.43" y="180.76" angle="143.13" type="Car" speed="0.00" pos="2.10" lane="3to4_0" slope="0.00"/>
    </timestep>
    <timestep time="35.00">
        <vehicle id="veh0" x="37.10" y="-8.00" angle="90.00" type="Bus" speed="1.00" pos="37.10" lane="1to2_0" slope="0.00"/>
        <vehicle id="veh1" x="361.63" y="171.16" angle="143.13" type="Car" speed="7.39" pos="14.10" lane="3to4_0" slope="0.00"/>
        <vehicle id="veh2" x="355.03" y="179.96" angle="143.13" type="Car" speed="1.00" pos="3.10" lane="3to4_0" slope="0.00"/>
    </timestep>
    <timestep time="36.00">
        <vehicle id="veh0" x="38.10" y="-8.00" angle="90.00" type="Bus" speed="1.00" pos="38.10" lane="1to2_0" slope="0.00"/>
        <vehicle id="veh1" x="366.66" y="164.45" angle="143.13" type="Car" speed="8.39" pos="22.48" lane="3to4_0" slope="0.00"/>
        <vehicle id="veh2" x="356.23" y="178.36" angle="143.13" type="Car" speed="2.00" pos="5.10" lane="3to4_0" slope="0.00"/>
    </timestep>
    <timestep time="37.00">
        <vehicle id="veh0" x="39.10" y="-8.00" angle="90.00" type="Bus" speed="1.00" pos="39.10" lane="1to2_0" slope="0.00"/>
        <vehicle id="veh1" x="372.29" y="156.94" angle="143.13" type="Car" speed="9.39" pos="31.87" lane="3to4_0" slope="0.00"/>
        <vehicle id="veh2" x="358.03" y="175.96" angle="143.13" type="Car" speed="3.00" pos="8.10" lane="3to4_0" slope="0.00"/>
    </timestep>
    <timestep time="38.00">
        <vehicle id="veh0" x="40.10" y="-8.00" angle="90.00" type="Bus" speed="1.00" pos="40.10" lane="1to2_0" slope="0.00"/>
        <vehicle id="veh1" x="378.52" y="148.63" angle="143.13" type="Car" speed="10.39" pos="42.25" lane="3to4_0" slope="0.00"/>
        <vehicle id="veh2" x="360.43" y="172.76" angle="143.13" type="Car" speed="4.00" pos="12.10" lane="3to4_0" slope="0.00"/>
    </timestep>
    <timestep time="39.00">
        <vehicle id="veh0" x="41.10" y="-8.00" angle="90.00" type="Bus" speed="1.00" pos="41.10" lane="1to2_0" slope="0.00"/>
        <vehicle id="veh1" x="385.36" y="139.53" angle="143.13" type="Car" speed="11.39" pos="53.64" lane="3to4_0" slope="0.00"/>
        <vehicle id="veh2" x="363.43" y="168.76" angle="143.13" type="Car" speed="5.00" pos="17.10" lane="3to4_0" slope="0.00"/>
    </timestep>
    <timestep time="40.00">
        <vehicle id="veh0" x="42.10" y="-8.00" angle="90.00" type="Bus" speed="1.00" pos="42.10" lane="1to2_0" slope="0.00"/>
        <vehicle id="veh1" x="392.79" y="129.62" angle="143.13" type="Car" speed="12.39" pos="66.03" lane="3to4_0" slope="0.00"/>
        <vehicle id="veh2" x="367.03" y="163.96" angle="143.13" type="Car" speed="6.00" pos="23.10" lane="3to4_0" slope="0.00"/>
    </timestep>
    <timestep time="41.00">
        <vehicle id="veh0" x="43.10" y="-8.00" angle="90.00" type="Bus" speed="1.00" pos="43.10" lane="1to2_0" slope="0.00"/>
        <vehicle id="veh1" x="400.82" y="118.91" angle="143.13" type="Car" speed="13.39" pos="79.41" lane="3to4_0" slope="0.00"/>
        <vehicle id="veh2" x="371.23" y="158.36" angle="143.13" type="Car" speed="7.00" pos="30.10" lane="3to4_0" slope="0.00"/>
    </timestep>
    <timestep time="42.00">
        <vehicle id="veh0" x="44.10" y="-8.00" angle="90.00" type="Bus" speed="1.00" pos="44.10" lane="1to2_0" slope="0.00"/>
        <vehicle id="veh1" x="409.45" y="107.40" angle="143.13" type="Car" speed="14.39" pos="93.80" lane="3to4_0" slope="0.00"/>
        <vehicle id="veh2" x="376.03" y="151.96" angle="143.13" type="Car" speed="8.00" pos="38.10" lane="3to4_0" slope="0.00"/>
    </timestep>
    <timestep time="43.00">
        <vehicle id="veh0" x="45.10" y="-8.00" angle="90.00" type="Bus" speed="1.00" pos="45.10" lane="1to2_0" slope="0.00"/>
        <vehicle id="veh1" x="418.68" y="95.09" angle="143.13" type="Car" speed="15.39" pos="109.18" lane="3to4_0" slope="0.00"/>
        <vehicle id="veh2" x="381.43" y="144.76" angle="143.13" type="Car" speed="9.00" pos="47.10" lane="3to4_0" slope="0.00"/>
    </timestep>
    <timestep time="44.00">
        <vehicle id="veh0" x="46.10" y="-8.00" angle="90.00" type="Bus" speed="1.00" pos="46.10" lane="1to2_0" slope="0.00"/>
        <vehicle id="veh1" x="428.52" y="81.98" angle="143.13" type="Car" speed="16.39" pos="125.57" lane="3to4_0" slope="0.00"/>
        <vehicle id="veh2" x="387.43" y="136.76" angle="143.13" type="Car" speed="10.00" pos="57.10" lane="3to4_0" slope="0.00"/>
    </timestep>
    <timestep time="45.00">
        <vehicle id="veh0" x="47.10" y="-8.00" angle="90.00" type="Bus" speed="1.00" pos="47.10" lane="1to2_0" slope="0.00"/>
        <vehicle id="veh1" x="438.95" y="68.07" angle="143.13" type="Car" speed="17.39" pos="142.96" lane="3to4_0" slope="0.00"/>
        <vehicle id="veh2" x="394.03" y="127.96" angle="143.13" type="Car" speed="11.00" pos="68.10" lane="3to4_0" slope="0.00"/>
    </timestep>
    <timestep time="46.00">
        <vehicle id="veh0" x="48.10" y="-8.00" angle="90.00" type="Bus" speed="1.00" pos="48.10" lane="1to2_0" slope="0.00"/>
        <vehicle id="veh1" x="449.98" y="53.36" angle="143.13" type="Car" speed="18.39" pos="161.34" lane="3to4_0" slope="0.00"/>
        <vehicle id="veh2" x="401.23" y="118.36" angle="143.13" type="Car" speed="12.00" pos="80.10" lane="3to4_0" slope="0.00"/>
    </timestep>
    <timestep time="47.00">
        <vehicle id="veh0" x="49.10" y="-8.00" angle="90.00" type="Bus" speed="1.00" pos="49.10" lane="1to2_0" slope="0.00"/>
        <vehicle id="veh1" x="461.61" y="37.85" angle="143.13" type="Car" speed="19.39" pos="180.73" lane="3to4_0" slope="0.00"/>
        <vehicle id="veh2" x="409.03" y="107.96" angle="143.13" type="Car" speed="13.00" pos="93.10" lane="3to4_0" slope="0.00"/>
    </timestep>
    <timestep time="48.00">
        <vehicle id="veh0" x="50.10" y="-8.00" angle="90.00" type="Bus" speed="1.00" pos="50.10" lane="1to2_0" slope="0.00"/>
        <vehicle id="veh1" x="473.84" y="21.54" angle="143.13" type="Car" speed="20.39" pos="201.11" lane="3to4_0" slope="0.00"/>
        <vehicle id="veh2" x="417.43" y="96.76" angle="143.13" type="Car" speed="14.00" pos="107.10" lane="3to4_0" slope="0.00"/>
    </timestep>
    <timestep time="49.00">
        <vehicle id="veh0" x="51.10" y="-8.00" angle="90.00" type="Bus" speed="1.00" pos="51.10" lane="1to2_0" slope="0.00"/>
        <vehicle id="veh1" x="486.68" y="4.43" angle="143.13" type="Car" speed="21.39" pos="222.50" lane="3to4_0" slope="0.00"/>
        <vehicle id="veh2" x="426.43" y="84.76" angle="143.13" type="Car" speed="15.00" pos="122.10" lane="3to4_0" slope="0.00"/>
    </timestep>
    <timestep time="50.00">
        <vehicle id="veh0" x="52.10" y="-8.00" angle="90.00" type="Bus" speed="1.00" pos="52.10" lane="1to2_0" slope="0.00"/>
        <vehicle id="veh2" x="436.03" y="71.96" angle="143.13" type="Car" speed="16.00" pos="138.10" lane="3to4_0" slope="0.00"/>
    </timestep>
    <timestep time="51.00">
        <vehicle id="veh0" x="53.10" y="-8.00" angle="90.00" type="Bus" speed="1.00" pos="53.10" lane="1to2_0" slope="0.00"/>
        <vehicle id="veh2" x="446.23" y="58.35" angle="143.13" type="Car" speed="17.00" pos="155.10" lane="3to4_0" slope="0.00"/>
    </timestep>
    <timestep time="52.00">
        <vehicle id="veh0" x="54.10" y="-8.00" angle="90.00" type="Bus" speed="1.00" pos="54.10" lane="1to2_0" slope="0.00"/>
        <vehicle id="veh2" x="457.03" y="43.95" angle="143.13" type="Car" speed="18.00" pos="173.10" lane="3to4_0" slope="0.00"/>
    </timestep>
    <timestep time="53.00">
        <vehicle id="veh0" x="55.10" y="-8.00" angle="90.00" type="Bus" speed="1.00" pos="55.10" lane="1to2_0" slope="0.00"/>
        <vehicle id="veh2" x="468.43" y="28.75" angle="143.13" type="Car" speed="19.00" pos="192.10" lane="3to4_0" slope="0.00"/>
    </timestep>
    <timestep time="54.00">
        <vehicle id="veh0" x="56.10" y="-8.00" angle="90.00" type="Bus" speed="1.00" pos="56.10" lane="1to2_0" slope="0.00"/>
        <vehicle id="veh2" x="479.82" y="13.57" angle="143.13" type="Car" speed="18.98" pos="211.08" lane="3to4_0" slope="0.00"/>
    </timestep>
    <timestep time="55.00">
        <vehicle id="veh0" x="57.10" y="-8.00" angle="90.00" type="Bus" speed="1.00" pos="57.10" lane="1to2_0" slope="0.00"/>
        <vehicle id="veh2" x="488.21" y="2.38" angle="143.13" type="Car" speed="13.98" pos="225.06" lane="3to4_0" slope="0.00"/>
    </timestep>
    <timestep time="56.00">
        <vehicle id="veh0" x="58.10" y="-8.00" angle="90.00" type="Bus" speed="1.00" pos="58.10" lane="1to2_0" slope="0.00"/>
        <vehicle id="veh2" x="493.60" y="-4.80" angle="143.13" type="Car" speed="8.98" pos="0.00" lane=":n4_0_0" slope="0.00"/>
    </timestep>
    <timestep time="57.00">
        <vehicle id="veh0" x="59.10" y="-8.00" angle="90.00" type="Bus" speed="1.00" pos="59.10" lane="1to2_0" slope="0.00"/>
        <vehicle id="veh2" x="499.87" y="-9.03" angle="108.49" type="Car" speed="7.76" pos="7.76" lane=":n4_0_0" slope="0.00"/>
    </timestep>
    <timestep time="58.00">
        <vehicle id="veh0" x="60.10" y="-8.00" angle="90.00" type="Bus" speed="1.00" pos="60.10" lane="1to2_0" slope="0.00"/>
        <vehicle id="veh2" x="506.20" y="-5.00" angle="45.00" type="Car" speed="7.76" pos="15.52" lane=":n4_0_0" slope="0.00"/>
    </timestep>
    <timestep time="59.00">
        <vehicle id="veh0" x="61.10" y="-8.00" angle="90.00" type="Bus" speed="1.00" pos="61.10" lane="1to2_0" slope="0.00"/>
        <vehicle id="veh2" x="510.89" y="1.18" angle="36.87" type="Car" speed="7.76" pos="7.48" lane="out_0" slope="0.00"/>
    </timestep>
    <timestep time="60.00">
        <vehicle id="veh0" x="62.10" y="-8.00" angle="90.00" type="Bus" speed="1.00" pos="62.10" lane="1to2_0" slope="0.00"/>
        <vehicle id="veh2" x="516.14" y="8.19" angle="36.87" type="Car" speed="8.76" pos="16.24" lane="out_0" slope="0.00"/>
    </timestep>
    <timestep time="61.00">
        <vehicle id="veh0" x="63.10" y="-8.00" angle="90.00" type="Bus" speed="1.00" pos="63.10" lane="1to2_0" slope="0.00"/>
        <vehicle id="veh2" x="522.00" y="16.00" angle="36.87" type="Car" speed="9.76" pos="26.00" lane="out_0" slope="0.00"/>
    </timestep>
    <timestep time="62.00">
        <vehicle id="veh0" x="64.10" y="-8.00" angle="90.00" type="Bus" speed="1.00" pos="64.10" lane="1to2_0" slope="0.00"/>
        <vehicle id="veh2" x="528.46" y="24.61" angle="36.87" type="Car" speed="10.76" pos="36.76" lane="out_0" slope="0.00"/>
    </timestep>
    <timestep time="63.00">
        <vehicle id="veh0" x="65.10" y="-8.00" angle="90.00" type="Bus" speed="1.00" pos="65.10" lane="1to2_0" slope="0.00"/>
        <vehicle id="veh2" x="535.51" y="34.01" angle="36.87" type="Car" speed="11.76" pos="48.52" lane="out_0" slope="0.00"/>
    </timestep>
    <timestep time="64.00">
        <vehicle id="veh0" x="66.10" y="-8.00" angle="90.00" type="Bus" speed="1.00" pos="66.10" lane="1to2_0" slope="0.00"/>
        <vehicle id="veh2" x="543.17" y="44.22" angle="36.87" type="Car" speed="12.76" pos="61.28" lane="out_0" slope="0.00"/>
    </timestep>
    <timestep time="65.00">
        <vehicle id="veh0" x="67.10" y="-8.00" angle="90.00" type="Bus" speed="1.00" pos="67.10" lane="1to2_0" slope="0.00"/>
        <vehicle id="veh2" x="551.42" y="55.23" angle="36.87" type="Car" speed="13.76" pos="75.04" lane="out_0" slope="0.00"/>
    </timestep>
    <timestep time="66.00">
        <vehicle id="veh0" x="68.10" y="-8.00" angle="90.00" type="Bus" speed="1.00" pos="68.10" lane="1to2_0" slope="0.00"/>
        <vehicle id="veh2" x="560.28" y="67.04" angle="36.87" type="Car" speed="14.76" pos="89.80" lane="out_0" slope="0.00"/>
    </timestep>
    <timestep time="67.00">
        <vehicle id="veh0" x="69.10" y="-8.00" angle="90.00" type="Bus" speed="1.00" pos="69.10" lane="1to2_0" slope="0.00"/>
        <vehicle id="veh2" x="569.73" y="79.65" angle="36.87" type="Car" speed="15.76" pos="105.56" lane="out_0" slope="0.00"/>
    </timestep>
    <timestep time="68.00">
        <vehicle id="veh0" x="70.10" y="-8.00" angle="90.00" type="Bus" speed="1.00" pos="70.10" lane="1to2_0" slope="0.00"/>
        <vehicle id="veh2" x="579.79" y="93.05" angle="36.87" type="Car" speed="16.76" pos="122.32" lane="out_0" slope="0.00"/>
    </timestep>
    <timestep time="69.00">
        <vehicle id="veh0" x="71.10" y="-8.00" angle="90.00" type="Bus" speed="1.00" pos="71.10" lane="1to2_0" slope="0.00"/>
        <vehicle id="veh2" x="590.45" y="107.26" angle="36.87" type="Car" speed="17.76" pos="140.08" lane="out_0" slope="0.00"/>
    </timestep>
    <timestep time="70.00">
        <vehicle id="veh0" x="72.10" y="-8.00" angle="90.00" type="Bus" speed="1.00" pos="72.10" lane="1to2_0" slope="0.00"/>
        <vehicle id="veh2" x="601.70" y="122.27" angle="36.87" type="Car" speed="18.76" pos="158.84" lane="out_0" slope="0.00"/>
    </timestep>
    <timestep time="71.00">
        <vehicle id="veh0" x="73.10" y="-8.00" angle="90.00" type="Bus" speed="1.00" pos="73.10" lane="1to2_0" slope="0.00"/>
        <vehicle id="veh2" x="613.56" y="138.08" angle="36.87" type="Car" speed="19.76" pos="178.60" lane="out_0" slope="0.00"/>
    </timestep>
    <timestep time="72.00">
        <vehicle id="veh0" x="74.10" y="-8.00" angle="90.00" type="Bus" speed="1.00" pos="74.10" lane="1to2_0" slope="0.00"/>
        <vehicle id="veh2" x="626.01" y="154.69" angle="36.87" type="Car" speed="20.76" pos="199.36" lane="out_0" slope="0.00"/>
    </timestep>
    <timestep time="73.00">
        <vehicle id="veh0" x="75.10" y="-8.00" angle="90.00" type="Bus" speed="1.00" pos="75.10" lane="1to2_0" slope="0.00"/>
        <vehicle id="veh2" x="639.07" y="172.09" angle="36.87" type="Car" speed="21.76" pos="221.12" lane="out_0" slope="0.00"/>
    </timestep>
    <timestep time="74.00">
        <vehicle id="veh0" x="76.10" y="-8.00" angle="90.00" type="Bus" speed="1.00" pos="76.10" lane="1to2_0" slope="0.00"/>
        <vehicle id="veh2" x="652.73" y="190.30" angle="36.87" type="Car" speed="22.76" pos="243.88" lane="out_0" slope="0.00"/>
    </timestep>
    <timestep time="75.00">
        <vehicle id="veh0" x="77.10" y="-8.00" angle="90.00" type="Bus" speed="1.00" pos="77.10" lane="1to2_0" slope="0.00"/>
    </timestep>
    <timestep time="76.00">
        <vehicle id="veh0" x="78.10" y="-8.00" angle="90.00" type="Bus" speed="1.00" pos="78.10" lane="1to2_0" slope="0.00"/>
    </timestep>
    <timestep time="77.00">
        <vehicle id="veh0" x="79.10" y="-8.00" angle="90.00" type="Bus" speed="1.00" pos="79.10" lane="1to2_0" slope="0.00"/>
    </timestep>
    <timestep time="78.00">
        <vehicle id="veh0" x="80.10" y="-8.00" angle="90.00" type="Bus" speed="1.00" pos="80.10" lane="1to2_0" slope="0.00"/>
    </timestep>
    <timestep time="79.00">
        <vehicle id="veh0" x="81.10" y="-8.00" angle="90.00" type="Bus" speed="1.00" pos="81.10" lane="1to2_0" slope="0.00"/>
    </timestep>
    <timestep time="80.00">
        <vehicle id="veh0" x="82.10" y="-8.00" angle="90.00" type="Bus" speed="1.00" pos="82.10" lane="1to2_0" slope="0.00"/>
    </timestep>
    <timestep time="81.00">
        <vehicle id="veh0" x="83.10" y="-8.00" angle="90.00" type="Bus" speed="1.00" pos="83.10" lane="1to2_0" slope="0.00"/>
    </timestep>
    <timestep time="82.00">
        <vehicle id="veh0" x="84.10" y="-8.00" angle="90.00" type="Bus" speed="1.00" pos="84.10" lane="1to2_0" slope="0.00"/>
    </timestep>
    <timestep time="83.00">
        <vehicle id="veh0" x="85.10" y="-8.00" angle="90.00" type="Bus" speed="1.00" pos="85.10" lane="1to2_0" slope="0.00"/>
    </timestep>
    <timestep time="84.00">
        <vehicle id="veh0" x="86.10" y="-8.00" angle="90.00" type="Bus" speed="1.00" pos="86.10" lane="1to2_0" slope="0.00"/>
    </timestep>
    <timestep time="85.00">
        <vehicle id="veh0" x="87.10" y="-8.00" angle="90.00" type="Bus" speed="1.00" pos="87.10" lane="1to2_0" slope="0.00"/>
    </timestep>
    <timestep time="86.00">
        <vehicle id="veh0" x="88.10" y="-8.00" angle="90.00" type="Bus" speed="1.00" pos="88.10" lane="1to2_0" slope="0.00"/>
    </timestep>
    <timestep time="87.00">
        <vehicle id="veh0" x="89.10" y="-8.00" angle="90.00" type="Bus" speed="1.00" pos="89.10" lane="1to2_0" slope="0.00"/>
    </timestep>
    <timestep time="88.00">
        <vehicle id="veh0" x="90.10" y="-8.00" angle="90.00" type="Bus" speed="1.00" pos="90.10" lane="1to2_0" slope="0.00"/>
    </timestep>
    <timestep time="89.00">
        <vehicle id="veh0" x="91.10" y="-8.00" angle="90.00" type="Bus" speed="1.00" pos="91.10" lane="1to2_0" slope="0.00"/>
    </timestep>
    <timestep time="90.00">
        <vehicle id="veh0" x="92.10" y="-8.00" angle="90.00" type="Bus" speed="1.00" pos="92.10" lane="1to2_0" slope="0.00"/>
    </timestep>
    <timestep time="91.00">
        <vehicle id="veh0" x="93.10" y="-8.00" angle="90.00" type="Bus" speed="1.00" pos="93.10" lane="1to2_0" slope="0.00"/>
    </timestep>
    <timestep time="92.00">
        <vehicle id="veh0" x="94.10" y="-8.00" angle="90.00" type="Bus" speed="1.00" pos="94.10" lane="1to2_0" slope="0.00"/>
    </timestep>
    <timestep time="93.00">
        <vehicle id="veh0" x="95.10" y="-8.00" angle="90.00" type="Bus" speed="1.00" pos="95.10" lane="1to2_0" slope="0.00"/>
    </timestep>
    <timestep time="94.00">
        <vehicle id="veh0" x="96.10" y="-8.00" angle="90.00" type="Bus" speed="1.00" pos="96.10" lane="1to2_0" slope="0.00"/>
    </timestep>
    <timestep time="95.00">
        <vehicle id="veh0" x="97.10" y="-8.00" angle="90.00" type="Bus" speed="1.00" pos="97.10" lane="1to2_0" slope="0.00"/>
    </timestep>
    <timestep time="96.00">
        <vehicle id="veh0" x="98.10" y="-8.00" angle="90.00" type="Bus" speed="1.00" pos="98.10" lane="1to2_0" slope="0.00"/>
    </timestep>
    <timestep time="97.00">
        <vehicle id="veh0" x="99.10" y="-8.00" angle="90.00" type="Bus" speed="1.00" pos="99.10" lane="1to2_0" slope="0.00"/>
    </timestep>
    <timestep time="98.00">
        <vehicle id="veh0" x="100.10" y="-8.00" angle="90.00" type="Bus" speed="1.00" pos="100.10" lane="1to2_0" slope="0.00"/>
    </timestep>
    <timestep time="99.00">
        <vehicle id="veh0" x="101.10" y="-8.00" angle="90.00" type="Bus" speed="1.00" pos="101.10" lane="1to2_0" slope="0.00"/>
    </timestep>
    <timestep time="100.00">
        <vehicle id="veh0" x="102.10" y="-8.00" angle="90.00" type="Bus" speed="1.00" pos="102.10" lane="1to2_0" slope="0.00"/>
    </timestep>
    <timestep time="101.00">
        <vehicle id="veh0" x="103.10" y="-8.00" angle="90.00" type="Bus" speed="1.00" pos="103.10" lane="1to2_0" slope="0.00"/>
    </timestep>
    <timestep time="102.00">
        <vehicle id="veh0" x="104.10" y="-8.00" angle="90.00" type="Bus" speed="1.00" pos="104.10" lane="1to2_0" slope="0.00"/>
    </timestep>
    <timestep time="103.00">
        <vehicle id="veh0" x="105.10" y="-8.00" angle="90.00" type="Bus" speed="1.00" pos="105.10" lane="1to2_0" slope="0.00"/>
    </timestep>
    <timestep time="104.00">
        <vehicle id="veh0" x="106.10" y="-8.00" angle="90.00" type="Bus" speed="1.00" pos="106.10" lane="1to2_0" slope="0.00"/>
    </timestep>
    <timestep time="105.00">
        <vehicle id="veh0" x="107.10" y="-8.00" angle="90.00" type="Bus" speed="1.00" pos="107.10" lane="1to2_0" slope="0.00"/>
    </timestep>
    <timestep time="106.00">
        <vehicle id="veh0" x="108.10" y="-8.00" angle="90.00" type="Bus" speed="1.00" pos="108.10" lane="1to2_0" slope="0.00"/>
    </timestep>
    <timestep time="107.00">
        <vehicle id="veh0" x="109.10" y="-8.00" angle="90.00" type="Bus" speed="1.00" pos="109.10" lane="1to2_0" slope="0.00"/>
    </timestep>
    <timestep time="108.00">
        <vehicle id="veh0" x="110.10" y="-8.00" angle="90.00" type="Bus" speed="1.00" pos="110.10" lane="1to2_0" slope="0.00"/>
    </timestep>
    <timestep time="109.00">
        <vehicle id="veh0" x="111.10" y="-8.00" angle="90.00" type="Bus" speed="1.00" pos="111.10" lane="1to2_0" slope="0.00"/>
    </timestep>
    <timestep time="110.00">
        <vehicle id="veh0" x="112.10" y="-8.00" angle="90.00" type="Bus" speed="1.00" pos="112.10" lane="1to2_0" slope="0.00"/>
    </timestep>
    <timestep time="111.00">
        <vehicle id="veh0" x="113.10" y="-8.00" angle="90.00" type="Bus" speed="1.00" pos="113.10" lane="1to2_0" slope="0.00"/>
    </timestep>
    <timestep time="112.00">
        <vehicle id="veh0" x="114.10" y="-8.00" angle="90.00" type="Bus" speed="1.00" pos="114.10" lane="1to2_0" slope="0.00"/>
    </timestep>
    <timestep time="113.00">
        <vehicle id="veh0" x="115.10" y="-8.00" angle="90.00" type="Bus" speed="1.00" pos="115.10" lane="1to2_0" slope="0.00"/>
    </timestep>
    <timestep time="114.00">
        <vehicle id="veh0" x="116.10" y="-8.00" angle="90.00" type="Bus" speed="1.00" pos="116.10" lane="1to2_0" slope="0.00"/>
    </timestep>
    <timestep time="115.00">
        <vehicle id="veh0" x="117.10" y="-8.00" angle="90.00" type="Bus" speed="1.00" pos="117.10" lane="1to2_0" slope="0.00"/>
    </timestep>
    <timestep time="116.00">
        <vehicle id="veh0" x="118.10" y="-8.00" angle="90.00" type="Bus" speed="1.00" pos="118.10" lane="1to2_0" slope="0.00"/>
    </timestep>
    <timestep time="117.00">
        <vehicle id="veh0" x="119.10" y="-8.00" angle="90.00" type="Bus" speed="1.00" pos="119.10" lane="1to2_0" slope="0.00"/>
    </timestep>
    <timestep time="118.00">
        <vehicle id="veh0" x="120.10" y="-8.00" angle="90.00" type="Bus" speed="1.00" pos="120.10" lane="1to2_0" slope="0.00"/>
    </timestep>